version 3
run General-0-20230510-18:38:07-12092
attr configname General
attr datetime 20230510-18:38:07
attr datetimef 20230510-183807
attr experiment General
attr inifile omnetpp.ini
attr iterationvars ""
attr iterationvarsd ""
attr iterationvarsf ""
attr measurement ""
attr network Topology
attr processid 12092
attr repetition 0
attr replication #0
attr resultdir results
attr runnumber 0
attr seedset 0
config network Topology
config config-recording globalconfig
config record-eventlog true
config check-signals true

vector 0 Topology.Client numMsg:vector ETV
attr recordingmode vector
attr title "the number of clients"
vector 1 Topology.MySQLServer ProcessingTime:vector ETV
attr recordingmode vector
attr title "Processing Time"
vector 2 Topology.Client responseTime:vector ETV
attr recordingmode vector
attr title "Response Time"
0	1	0	1
0	3	0.079587451643	2
0	5	0.205180529319	3
0	8	0.297502843842	4
0	12	0.376222959013	5
0	15	0.473923603108	6
0	17	0.522436420203	7
0	22	0.579988340749	8
0	51	0.911479573681	9
0	67	1.171304986138	10
0	83	1.275766238525	11
0	98	1.479855463157	12
0	110	1.593449359021	13
0	122	1.720972131144	14
0	155	2.010414183256	15
0	163	2.071322426482	16
0	164	2.085850229428	17
0	165	2.087747086376	18
0	169	2.126924168027	19
0	181	2.221623837156	20
1	57	1.005279300105	1.005279300105
1	61	1.028739697095	1.028739697095
1	62	1.033066101799	1.033066101799
1	68	1.17571748407	1.17571748407
1	69	1.178340027693	1.178340027693
1	73	1.206502551593	1.206502551593
1	108	1.565832198203	1.565832198203
1	116	1.676359924958	1.676359924958
1	149	1.967701288264	1.967701288264
1	190	2.276255320315	2.276255320315
1	204	2.408397466328	2.408397466328
1	210	2.457246210098	2.457246210098
1	211	2.461413009125	2.461413009125
1	232	2.697810272096	2.697810272096
1	235	2.726126670411	2.726126670411
1	245	2.764972917639	2.764972917639
1	263	2.954915005083	2.954915005083
1	271	3.021777680883	3.021777680883
1	286	3.267375696362	3.267375696362
1	308	3.842308218375	3.842308218375
2	104	1.541654109431	1
2	109	1.570914822695	2
2	125	1.734441374582	3
2	137	1.869154632726	4
2	140	1.884182931224	5
2	148	1.958253593124	6
2	194	2.297816549776	7
2	202	2.346975057955	8
2	251	2.871675074076	9
2	261	2.929439160614	10
2	266	2.971906813728	11
2	273	3.064812578366	12
2	274	3.077173925447	13
2	288	3.312483584051	14
2	300	3.631797640495	15
2	305	3.72822883708	16
2	309	3.860575192576	17
2	311	3.917347187756	18
2	319	4.377119823145	19
2	320	4.39831815366	20

